+ 0.009327 0 3 tcp 40 ------- 1 0.0 5.0 0 0
- 0.009327 0 3 tcp 40 ------- 1 0.0 5.0 0 0
+ 0.009327 0 3 tcp 552 ------- 1 0.0 5.0 1 1
- 0.009655 0 3 tcp 552 ------- 1 0.0 5.0 1 1
r 0.015713 0 3 tcp 40 ------- 1 0.0 5.0 0 0
+ 0.015713 3 4 tcp 40 ------- 1 0.0 5.0 0 0
- 0.015713 3 4 tcp 40 ------- 1 0.0 5.0 0 0
r 0.015761 0 3 tcp 552 ------- 1 0.0 5.0 1 1
+ 0.015761 3 4 tcp 552 ------- 1 0.0 5.0 1 1
- 0.015766 3 4 tcp 552 ------- 1 0.0 5.0 1 1
r 0.030909 3 4 tcp 40 ------- 1 0.0 5.0 0 0
+ 0.030909 4 5 tcp 40 ------- 1 0.0 5.0 0 0
- 0.030909 4 5 tcp 40 ------- 1 0.0 5.0 0 0
r 0.030992 3 4 tcp 552 ------- 1 0.0 5.0 1 1
+ 0.030992 4 5 tcp 552 ------- 1 0.0 5.0 1 1
- 0.030997 4 5 tcp 552 ------- 1 0.0 5.0 1 1
r 0.036378 4 5 tcp 40 ------- 1 0.0 5.0 0 0
+ 0.036378 5 4 ack 40 ------- 1 5.0 0.0 0 2
- 0.036378 5 4 ack 40 ------- 1 5.0 0.0 0 2
r 0.036481 4 5 tcp 552 ------- 1 0.0 5.0 1 1
+ 0.036481 5 4 ack 40 ------- 1 5.0 0.0 1 3
- 0.036493 5 4 ack 40 ------- 1 5.0 0.0 1 3
r 0.04284 5 4 ack 40 ------- 1 5.0 0.0 0 2
+ 0.04284 4 3 ack 40 ------- 1 5.0 0.0 0 2
- 0.04284 4 3 ack 40 ------- 1 5.0 0.0 0 2
r 0.043085 5 4 ack 40 ------- 1 5.0 0.0 1 3
+ 0.043085 4 3 ack 40 ------- 1 5.0 0.0 1 3
- 0.043093 4 3 ack 40 ------- 1 5.0 0.0 1 3
r 0.056299 4 3 ack 40 ------- 1 5.0 0.0 0 2
+ 0.056299 3 0 ack 40 ------- 1 5.0 0.0 0 2
- 0.056299 3 0 ack 40 ------- 1 5.0 0.0 0 2
r 0.056343 4 3 ack 40 ------- 1 5.0 0.0 1 3
+ 0.056343 3 0 ack 40 ------- 1 5.0 0.0 1 3
- 0.056348 3 0 ack 40 ------- 1 5.0 0.0 1 3
r 0.063278 3 0 ack 40 ------- 1 5.0 0.0 0 2
+ 0.063278 0 3 tcp 552 ------- 1 0.0 5.0 2 4
- 0.063278 0 3 tcp 552 ------- 1 0.0 5.0 2 4
+ 0.063278 0 3 tcp 552 ------- 1 0.0 5.0 3 5
+ 0.063278 0 3 tcp 552 ------- 1 0.0 5.0 4 6
+ 0.063278 0 3 tcp 552 ------- 1 0.0 5.0 5 7
r 0.063381 3 0 ack 40 ------- 1 5.0 0.0 1 3
+ 0.063381 0 3 tcp 552 ------- 1 0.0 5.0 6 8
+ 0.063381 0 3 tcp 552 ------- 1 0.0 5.0 7 9
+ 0.063381 0 3 tcp 552 ------- 1 0.0 5.0 8 10
+ 0.063381 0 3 tcp 552 ------- 1 0.0 5.0 9 11
- 0.063404 0 3 tcp 552 ------- 1 0.0 5.0 3 5
- 0.072115 0 3 tcp 552 ------- 1 0.0 5.0 4 6
r 0.072195 0 3 tcp 552 ------- 1 0.0 5.0 2 4
+ 0.072195 3 4 tcp 552 ------- 1 0.0 5.0 2 4
- 0.072195 3 4 tcp 552 ------- 1 0.0 5.0 2 4
r 0.072264 0 3 tcp 552 ------- 1 0.0 5.0 3 5
+ 0.072264 3 4 tcp 552 ------- 1 0.0 5.0 3 5
- 0.072269 0 3 tcp 552 ------- 1 0.0 5.0 5 7
- 0.072274 3 4 tcp 552 ------- 1 0.0 5.0 3 5
- 0.074804 0 3 tcp 552 ------- 1 0.0 5.0 6 8
- 0.075535 0 3 tcp 552 ------- 1 0.0 5.0 7 9
- 0.077914 0 3 tcp 552 ------- 1 0.0 5.0 8 10
r 0.077929 0 3 tcp 552 ------- 1 0.0 5.0 4 6
+ 0.077929 3 4 tcp 552 ------- 1 0.0 5.0 4 6
- 0.077929 3 4 tcp 552 ------- 1 0.0 5.0 4 6
r 0.079575 0 3 tcp 552 ------- 1 0.0 5.0 5 7
+ 0.079575 3 4 tcp 552 ------- 1 0.0 5.0 5 7
- 0.079579 0 3 tcp 552 ------- 1 0.0 5.0 9 11
- 0.079583 3 4 tcp 552 ------- 1 0.0 5.0 5 7
r 0.083184 0 3 tcp 552 ------- 1 0.0 5.0 6 8
+ 0.083184 3 4 tcp 552 ------- 1 0.0 5.0 6 8
- 0.083184 3 4 tcp 552 ------- 1 0.0 5.0 6 8
r 0.083201 0 3 tcp 552 ------- 1 0.0 5.0 7 9
+ 0.083201 3 4 tcp 552 ------- 1 0.0 5.0 7 9
r 0.083206 3 4 tcp 552 ------- 1 0.0 5.0 2 4
+ 0.083206 4 5 tcp 552 ------- 1 0.0 5.0 2 4
- 0.083206 4 5 tcp 552 ------- 1 0.0 5.0 2 4
r 0.083216 3 4 tcp 552 ------- 1 0.0 5.0 3 5
+ 0.083216 4 5 tcp 552 ------- 1 0.0 5.0 3 5
r 0.08322 0 3 tcp 552 ------- 1 0.0 5.0 8 10
+ 0.08322 3 4 tcp 552 ------- 1 0.0 5.0 8 10
- 0.086131 3 4 tcp 552 ------- 1 0.0 5.0 7 9
- 0.0862 4 5 tcp 552 ------- 1 0.0 5.0 3 5
r 0.086211 0 3 tcp 552 ------- 1 0.0 5.0 9 11
+ 0.086211 3 4 tcp 552 ------- 1 0.0 5.0 9 11
- 0.086234 3 4 tcp 552 ------- 1 0.0 5.0 8 10
- 0.086617 3 4 tcp 552 ------- 1 0.0 5.0 9 11
r 0.088946 3 4 tcp 552 ------- 1 0.0 5.0 4 6
+ 0.088946 4 5 tcp 552 ------- 1 0.0 5.0 4 6
- 0.088946 4 5 tcp 552 ------- 1 0.0 5.0 4 6
r 0.088964 4 5 tcp 552 ------- 1 0.0 5.0 2 4
+ 0.088964 5 4 ack 40 ------- 1 5.0 0.0 2 12
- 0.088964 5 4 ack 40 ------- 1 5.0 0.0 2 12
r 0.089802 3 4 tcp 552 ------- 1 0.0 5.0 5 7
+ 0.089802 4 5 tcp 552 ------- 1 0.0 5.0 5 7
- 0.089802 4 5 tcp 552 ------- 1 0.0 5.0 5 7
r 0.095633 4 5 tcp 552 ------- 1 0.0 5.0 3 5
+ 0.095633 5 4 ack 40 ------- 1 5.0 0.0 3 13
- 0.095633 5 4 ack 40 ------- 1 5.0 0.0 3 13
r 0.095829 3 4 tcp 552 ------- 1 0.0 5.0 6 8
+ 0.095829 4 5 tcp 552 ------- 1 0.0 5.0 6 8
- 0.095829 4 5 tcp 552 ------- 1 0.0 5.0 6 8
r 0.095839 5 4 ack 40 ------- 1 5.0 0.0 2 12
+ 0.095839 4 3 ack 40 ------- 1 5.0 0.0 2 12
- 0.095839 4 3 ack 40 ------- 1 5.0 0.0 2 12
r 0.095847 4 5 tcp 552 ------- 1 0.0 5.0 4 6
+ 0.095847 5 4 ack 40 ------- 1 5.0 0.0 4 14
r 0.095852 4 5 tcp 552 ------- 1 0.0 5.0 5 7
+ 0.095852 5 4 ack 40 ------- 1 5.0 0.0 5 15
- 0.095856 5 4 ack 40 ------- 1 5.0 0.0 4 14
- 0.09586 5 4 ack 40 ------- 1 5.0 0.0 5 15
r 0.096546 3 4 tcp 552 ------- 1 0.0 5.0 7 9
+ 0.096546 4 5 tcp 552 ------- 1 0.0 5.0 7 9
- 0.096546 4 5 tcp 552 ------- 1 0.0 5.0 7 9
r 0.096559 3 4 tcp 552 ------- 1 0.0 5.0 8 10
+ 0.096559 4 5 tcp 552 ------- 1 0.0 5.0 8 10
- 0.096933 4 5 tcp 552 ------- 1 0.0 5.0 8 10
r 0.096942 3 4 tcp 552 ------- 1 0.0 5.0 9 11
+ 0.096942 4 5 tcp 552 ------- 1 0.0 5.0 9 11
- 0.097289 4 5 tcp 552 ------- 1 0.0 5.0 9 11
r 0.103452 5 4 ack 40 ------- 1 5.0 0.0 3 13
+ 0.103452 4 3 ack 40 ------- 1 5.0 0.0 3 13
- 0.103452 4 3 ack 40 ------- 1 5.0 0.0 3 13
r 0.103485 5 4 ack 40 ------- 1 5.0 0.0 4 14
+ 0.103485 4 3 ack 40 ------- 1 5.0 0.0 4 14
r 0.10349 5 4 ack 40 ------- 1 5.0 0.0 5 15
+ 0.10349 4 3 ack 40 ------- 1 5.0 0.0 5 15
r 0.103494 4 5 tcp 552 ------- 1 0.0 5.0 6 8
+ 0.103494 5 4 ack 40 ------- 1 5.0 0.0 6 16
- 0.103494 5 4 ack 40 ------- 1 5.0 0.0 6 16
r 0.103507 4 5 tcp 552 ------- 1 0.0 5.0 7 9
+ 0.103507 5 4 ack 40 ------- 1 5.0 0.0 7 17
r 0.103701 4 5 tcp 552 ------- 1 0.0 5.0 8 10
+ 0.103701 5 4 ack 40 ------- 1 5.0 0.0 8 18
r 0.103706 4 5 tcp 552 ------- 1 0.0 5.0 9 11
+ 0.103706 5 4 ack 40 ------- 1 5.0 0.0 9 19
- 0.103711 4 3 ack 40 ------- 1 5.0 0.0 4 14
- 0.103715 5 4 ack 40 ------- 1 5.0 0.0 7 17
- 0.103718 4 3 ack 40 ------- 1 5.0 0.0 5 15
- 0.103722 5 4 ack 40 ------- 1 5.0 0.0 8 18
- 0.104527 5 4 ack 40 ------- 1 5.0 0.0 9 19
r 0.107938 4 3 ack 40 ------- 1 5.0 0.0 2 12
+ 0.107938 3 0 ack 40 ------- 1 5.0 0.0 2 12
- 0.107938 3 0 ack 40 ------- 1 5.0 0.0 2 12
r 0.117677 5 4 ack 40 ------- 1 5.0 0.0 6 16
+ 0.117677 4 3 ack 40 ------- 1 5.0 0.0 6 16
- 0.117677 4 3 ack 40 ------- 1 5.0 0.0 6 16
r 0.117714 5 4 ack 40 ------- 1 5.0 0.0 7 17
+ 0.117714 4 3 ack 40 ------- 1 5.0 0.0 7 17
r 0.117719 5 4 ack 40 ------- 1 5.0 0.0 8 18
+ 0.117719 4 3 ack 40 ------- 1 5.0 0.0 8 18
r 0.117724 5 4 ack 40 ------- 1 5.0 0.0 9 19
+ 0.117724 4 3 ack 40 ------- 1 5.0 0.0 9 19
r 0.117728 3 0 ack 40 ------- 1 5.0 0.0 2 12
+ 0.117728 0 3 tcp 552 ------- 1 0.0 5.0 10 20
- 0.117728 0 3 tcp 552 ------- 1 0.0 5.0 10 20
+ 0.117728 0 3 tcp 552 ------- 1 0.0 5.0 11 21
+ 0.117728 0 3 tcp 552 ------- 1 0.0 5.0 12 22
+ 0.117728 0 3 tcp 552 ------- 1 0.0 5.0 13 23
+ 0.117728 0 3 tcp 552 ------- 1 0.0 5.0 14 24
r 0.117773 4 3 ack 40 ------- 1 5.0 0.0 3 13
+ 0.117773 3 0 ack 40 ------- 1 5.0 0.0 3 13
- 0.117773 3 0 ack 40 ------- 1 5.0 0.0 3 13
r 0.117782 4 3 ack 40 ------- 1 5.0 0.0 4 14
+ 0.117782 3 0 ack 40 ------- 1 5.0 0.0 4 14
r 0.117786 4 3 ack 40 ------- 1 5.0 0.0 5 15
+ 0.117786 3 0 ack 40 ------- 1 5.0 0.0 5 15
- 0.117828 4 3 ack 40 ------- 1 5.0 0.0 7 17
- 0.117831 0 3 tcp 552 ------- 1 0.0 5.0 11 21
- 0.117835 3 0 ack 40 ------- 1 5.0 0.0 4 14
- 0.117838 4 3 ack 40 ------- 1 5.0 0.0 8 18
- 0.117841 3 0 ack 40 ------- 1 5.0 0.0 5 15
- 0.117844 4 3 ack 40 ------- 1 5.0 0.0 9 19
- 0.122332 0 3 tcp 552 ------- 1 0.0 5.0 12 22
- 0.122386 0 3 tcp 552 ------- 1 0.0 5.0 13 23
- 0.122439 0 3 tcp 552 ------- 1 0.0 5.0 14 24
r 0.122775 0 3 tcp 552 ------- 1 0.0 5.0 10 20
+ 0.122775 3 4 tcp 552 ------- 1 0.0 5.0 10 20
- 0.122775 3 4 tcp 552 ------- 1 0.0 5.0 10 20
r 0.1228 3 0 ack 40 ------- 1 5.0 0.0 3 13
+ 0.1228 0 3 tcp 552 ------- 1 0.0 5.0 15 25
- 0.1228 0 3 tcp 552 ------- 1 0.0 5.0 15 25
+ 0.1228 0 3 tcp 552 ------- 1 0.0 5.0 16 26
+ 0.1228 0 3 tcp 552 ------- 1 0.0 5.0 17 27
+ 0.1228 0 3 tcp 552 ------- 1 0.0 5.0 18 28
r 0.122885 3 0 ack 40 ------- 1 5.0 0.0 4 14
+ 0.122885 0 3 tcp 552 ------- 1 0.0 5.0 19 29
+ 0.122885 0 3 tcp 552 ------- 1 0.0 5.0 20 30
+ 0.122885 0 3 tcp 552 ------- 1 0.0 5.0 21 31
+ 0.122885 0 3 tcp 552 ------- 1 0.0 5.0 22 32
- 0.123755 0 3 tcp 552 ------- 1 0.0 5.0 16 26
r 0.123761 3 0 ack 40 ------- 1 5.0 0.0 5 15
+ 0.123761 0 3 tcp 552 ------- 1 0.0 5.0 23 33
+ 0.123761 0 3 tcp 552 ------- 1 0.0 5.0 24 34
+ 0.123761 0 3 tcp 552 ------- 1 0.0 5.0 25 35
+ 0.123761 0 3 tcp 552 ------- 1 0.0 5.0 26 36
+ 0.123761 0 3 tcp 552 ------- 1 0.0 5.0 27 37
r 0.12379 0 3 tcp 552 ------- 1 0.0 5.0 11 21
+ 0.12379 3 4 tcp 552 ------- 1 0.0 5.0 11 21
- 0.12379 3 4 tcp 552 ------- 1 0.0 5.0 11 21
- 0.125918 0 3 tcp 552 ------- 1 0.0 5.0 17 27
- 0.126401 0 3 tcp 552 ------- 1 0.0 5.0 18 28
- 0.12976 0 3 tcp 552 ------- 1 0.0 5.0 19 29
r 0.129782 0 3 tcp 552 ------- 1 0.0 5.0 12 22
+ 0.129782 3 4 tcp 552 ------- 1 0.0 5.0 12 22
- 0.129782 3 4 tcp 552 ------- 1 0.0 5.0 12 22
r 0.129795 0 3 tcp 552 ------- 1 0.0 5.0 13 23
+ 0.129795 3 4 tcp 552 ------- 1 0.0 5.0 13 23
r 0.129799 0 3 tcp 552 ------- 1 0.0 5.0 14 24
+ 0.129799 3 4 tcp 552 ------- 1 0.0 5.0 14 24
r 0.129803 4 3 ack 40 ------- 1 5.0 0.0 6 16
+ 0.129803 3 0 ack 40 ------- 1 5.0 0.0 6 16
- 0.129803 3 0 ack 40 ------- 1 5.0 0.0 6 16
r 0.129813 4 3 ack 40 ------- 1 5.0 0.0 7 17
+ 0.129813 3 0 ack 40 ------- 1 5.0 0.0 7 17
r 0.129817 4 3 ack 40 ------- 1 5.0 0.0 8 18
+ 0.129817 3 0 ack 40 ------- 1 5.0 0.0 8 18
r 0.129821 0 3 tcp 552 ------- 1 0.0 5.0 15 25
+ 0.129821 3 4 tcp 552 ------- 1 0.0 5.0 15 25
r 0.129825 4 3 ack 40 ------- 1 5.0 0.0 9 19
+ 0.129825 3 0 ack 40 ------- 1 5.0 0.0 9 19
r 0.129829 0 3 tcp 552 ------- 1 0.0 5.0 16 26
+ 0.129829 3 4 tcp 552 ------- 1 0.0 5.0 16 26
- 0.129833 0 3 tcp 552 ------- 1 0.0 5.0 20 30
- 0.129836 3 0 ack 40 ------- 1 5.0 0.0 7 17
- 0.129839 3 4 tcp 552 ------- 1 0.0 5.0 13 23
- 0.129843 3 0 ack 40 ------- 1 5.0 0.0 8 18
- 0.130139 3 0 ack 40 ------- 1 5.0 0.0 9 19
- 0.130148 0 3 tcp 552 ------- 1 0.0 5.0 21 31
- 0.130152 3 4 tcp 552 ------- 1 0.0 5.0 14 24
- 0.130447 0 3 tcp 552 ------- 1 0.0 5.0 22 32
- 0.130488 3 4 tcp 552 ------- 1 0.0 5.0 15 25
- 0.130492 0 3 tcp 552 ------- 1 0.0 5.0 23 33
- 0.130784 3 4 tcp 552 ------- 1 0.0 5.0 16 26
- 0.130793 0 3 tcp 552 ------- 1 0.0 5.0 24 34
- 0.131087 0 3 tcp 552 ------- 1 0.0 5.0 25 35
r 0.131095 0 3 tcp 552 ------- 1 0.0 5.0 17 27
+ 0.131095 3 4 tcp 552 ------- 1 0.0 5.0 17 27
- 0.131095 3 4 tcp 552 ------- 1 0.0 5.0 17 27
- 0.131392 0 3 tcp 552 ------- 1 0.0 5.0 26 36
- 0.131694 0 3 tcp 552 ------- 1 0.0 5.0 27 37
r 0.131703 0 3 tcp 552 ------- 1 0.0 5.0 18 28
+ 0.131703 3 4 tcp 552 ------- 1 0.0 5.0 18 28
- 0.131703 3 4 tcp 552 ------- 1 0.0 5.0 18 28
r 0.132992 3 4 tcp 552 ------- 1 0.0 5.0 10 20
+ 0.132992 4 5 tcp 552 ------- 1 0.0 5.0 10 20
- 0.132992 4 5 tcp 552 ------- 1 0.0 5.0 10 20
r 0.133882 3 4 tcp 552 ------- 1 0.0 5.0 11 21
+ 0.133882 4 5 tcp 552 ------- 1 0.0 5.0 11 21
- 0.133882 4 5 tcp 552 ------- 1 0.0 5.0 11 21
r 0.134889 0 3 tcp 552 ------- 1 0.0 5.0 19 29
+ 0.134889 3 4 tcp 552 ------- 1 0.0 5.0 19 29
- 0.134889 3 4 tcp 552 ------- 1 0.0 5.0 19 29
r 0.134903 3 0 ack 40 ------- 1 5.0 0.0 6 16
+ 0.134903 0 3 tcp 552 ------- 1 0.0 5.0 28 38
- 0.134903 0 3 tcp 552 ------- 1 0.0 5.0 28 38
+ 0.134903 0 3 tcp 552 ------- 1 0.0 5.0 29 39
+ 0.134903 0 3 tcp 552 ------- 1 0.0 5.0 30 40
+ 0.134903 0 3 tcp 552 ------- 1 0.0 5.0 31 41
r 0.134936 3 0 ack 40 ------- 1 5.0 0.0 7 17
+ 0.134936 0 3 tcp 552 ------- 1 0.0 5.0 32 42
+ 0.134936 0 3 tcp 552 ------- 1 0.0 5.0 33 43
+ 0.134936 0 3 tcp 552 ------- 1 0.0 5.0 34 44
+ 0.134936 0 3 tcp 552 ------- 1 0.0 5.0 35 45
r 0.134983 3 0 ack 40 ------- 1 5.0 0.0 8 18
+ 0.134983 0 3 tcp 552 ------- 1 0.0 5.0 36 46
+ 0.134983 0 3 tcp 552 ------- 1 0.0 5.0 37 47
+ 0.134983 0 3 tcp 552 ------- 1 0.0 5.0 38 48
+ 0.134983 0 3 tcp 552 ------- 1 0.0 5.0 39 49
+ 0.134983 0 3 tcp 552 ------- 1 0.0 5.0 40 50
r 0.135003 0 3 tcp 552 ------- 1 0.0 5.0 20 30
+ 0.135003 3 4 tcp 552 ------- 1 0.0 5.0 20 30
- 0.135007 3 4 tcp 552 ------- 1 0.0 5.0 20 30
- 0.135011 0 3 tcp 552 ------- 1 0.0 5.0 29 39
- 0.135317 0 3 tcp 552 ------- 1 0.0 5.0 30 40
r 0.135464 3 0 ack 40 ------- 1 5.0 0.0 9 19
+ 0.135464 0 3 tcp 552 ------- 1 0.0 5.0 41 51
r 0.135472 0 3 tcp 552 ------- 1 0.0 5.0 21 31
+ 0.135472 3 4 tcp 552 ------- 1 0.0 5.0 21 31
- 0.135472 3 4 tcp 552 ------- 1 0.0 5.0 21 31
- 0.13548 0 3 tcp 552 ------- 1 0.0 5.0 31 41
r 0.136182 0 3 tcp 552 ------- 1 0.0 5.0 22 32
+ 0.136182 3 4 tcp 552 ------- 1 0.0 5.0 22 32
- 0.136192 3 4 tcp 552 ------- 1 0.0 5.0 22 32
- 0.136196 0 3 tcp 552 ------- 1 0.0 5.0 32 42
r 0.136199 0 3 tcp 552 ------- 1 0.0 5.0 23 33
+ 0.136199 3 4 tcp 552 ------- 1 0.0 5.0 23 33
r 0.136203 0 3 tcp 552 ------- 1 0.0 5.0 24 34
+ 0.136203 3 4 tcp 552 ------- 1 0.0 5.0 24 34
r 0.136207 0 3 tcp 552 ------- 1 0.0 5.0 25 35
+ 0.136207 3 4 tcp 552 ------- 1 0.0 5.0 25 35
- 0.138875 3 4 tcp 552 ------- 1 0.0 5.0 23 33
- 0.138949 0 3 tcp 552 ------- 1 0.0 5.0 33 43
r 0.138956 0 3 tcp 552 ------- 1 0.0 5.0 26 36
+ 0.138956 3 4 tcp 552 ------- 1 0.0 5.0 26 36
r 0.138969 0 3 tcp 552 ------- 1 0.0 5.0 27 37
+ 0.138969 3 4 tcp 552 ------- 1 0.0 5.0 27 37
r 0.138974 4 5 tcp 552 ------- 1 0.0 5.0 10 20
+ 0.138974 5 4 ack 40 ------- 1 5.0 0.0 10 52
- 0.138974 5 4 ack 40 ------- 1 5.0 0.0 10 52
- 0.141204 3 4 tcp 552 ------- 1 0.0 5.0 24 34
r 0.14121 4 5 tcp 552 ------- 1 0.0 5.0 11 21
+ 0.14121 5 4 ack 40 ------- 1 5.0 0.0 11 53
- 0.141216 5 4 ack 40 ------- 1 5.0 0.0 11 53
- 0.141219 0 3 tcp 552 ------- 1 0.0 5.0 34 44
r 0.141224 3 4 tcp 552 ------- 1 0.0 5.0 12 22
+ 0.141224 4 5 tcp 552 ------- 1 0.0 5.0 12 22
- 0.141224 4 5 tcp 552 ------- 1 0.0 5.0 12 22
r 0.141235 3 4 tcp 552 ------- 1 0.0 5.0 13 23
+ 0.141235 4 5 tcp 552 ------- 1 0.0 5.0 13 23
r 0.141239 0 3 tcp 552 ------- 1 0.0 5.0 28 38
+ 0.141239 3 4 tcp 552 ------- 1 0.0 5.0 28 38
r 0.141245 0 3 tcp 552 ------- 1 0.0 5.0 29 39
+ 0.141245 3 4 tcp 552 ------- 1 0.0 5.0 29 39
r 0.141249 3 4 tcp 552 ------- 1 0.0 5.0 14 24
+ 0.141249 4 5 tcp 552 ------- 1 0.0 5.0 14 24
r 0.141254 0 3 tcp 552 ------- 1 0.0 5.0 30 40
+ 0.141254 3 4 tcp 552 ------- 1 0.0 5.0 30 40
r 0.141258 0 3 tcp 552 ------- 1 0.0 5.0 31 41
+ 0.141258 3 4 tcp 552 ------- 1 0.0 5.0 31 41
r 0.141262 3 4 tcp 552 ------- 1 0.0 5.0 15 25
+ 0.141262 4 5 tcp 552 ------- 1 0.0 5.0 15 25
r 0.141266 3 4 tcp 552 ------- 1 0.0 5.0 16 26
+ 0.141266 4 5 tcp 552 ------- 1 0.0 5.0 16 26
r 0.141271 3 4 tcp 552 ------- 1 0.0 5.0 17 27
+ 0.141271 4 5 tcp 552 ------- 1 0.0 5.0 17 27
r 0.141276 0 3 tcp 552 ------- 1 0.0 5.0 32 42
+ 0.141276 3 4 tcp 552 ------- 1 0.0 5.0 32 42
- 0.14128 3 4 tcp 552 ------- 1 0.0 5.0 25 35
- 0.141284 0 3 tcp 552 ------- 1 0.0 5.0 35 45
- 0.141289 4 5 tcp 552 ------- 1 0.0 5.0 13 23
- 0.142556 3 4 tcp 552 ------- 1 0.0 5.0 26 36
- 0.142579 0 3 tcp 552 ------- 1 0.0 5.0 36 46
- 0.142619 4 5 tcp 552 ------- 1 0.0 5.0 14 24
r 0.142623 3 4 tcp 552 ------- 1 0.0 5.0 18 28
+ 0.142623 4 5 tcp 552 ------- 1 0.0 5.0 18 28
- 0.142631 3 4 tcp 552 ------- 1 0.0 5.0 27 37
- 0.142634 0 3 tcp 552 ------- 1 0.0 5.0 37 47
- 0.142983 4 5 tcp 552 ------- 1 0.0 5.0 15 25
- 0.142993 3 4 tcp 552 ------- 1 0.0 5.0 28 38
- 0.142996 0 3 tcp 552 ------- 1 0.0 5.0 38 48
- 0.143409 4 5 tcp 552 ------- 1 0.0 5.0 16 26
- 0.143418 3 4 tcp 552 ------- 1 0.0 5.0 29 39
- 0.143422 0 3 tcp 552 ------- 1 0.0 5.0 39 49
- 0.143895 4 5 tcp 552 ------- 1 0.0 5.0 17 27
- 0.143904 3 4 tcp 552 ------- 1 0.0 5.0 30 40
- 0.14391 0 3 tcp 552 ------- 1 0.0 5.0 40 50
- 0.144387 4 5 tcp 552 ------- 1 0.0 5.0 18 28
- 0.144397 3 4 tcp 552 ------- 1 0.0 5.0 31 41
- 0.1444 0 3 tcp 552 ------- 1 0.0 5.0 41 51
r 0.144404 5 4 ack 40 ------- 1 5.0 0.0 10 52
+ 0.144404 4 3 ack 40 ------- 1 5.0 0.0 10 52
- 0.144404 4 3 ack 40 ------- 1 5.0 0.0 10 52
r 0.144415 0 3 tcp 552 ------- 1 0.0 5.0 33 43
+ 0.144415 3 4 tcp 552 ------- 1 0.0 5.0 33 43
- 0.144707 3 4 tcp 552 ------- 1 0.0 5.0 32 42
- 0.144992 3 4 tcp 552 ------- 1 0.0 5.0 33 43
r 0.145002 3 4 tcp 552 ------- 1 0.0 5.0 19 29
+ 0.145002 4 5 tcp 552 ------- 1 0.0 5.0 19 29
- 0.145002 4 5 tcp 552 ------- 1 0.0 5.0 19 29
r 0.145297 3 4 tcp 552 ------- 1 0.0 5.0 20 30
+ 0.145297 4 5 tcp 552 ------- 1 0.0 5.0 20 30
- 0.145297 4 5 tcp 552 ------- 1 0.0 5.0 20 30
r 0.146976 3 4 tcp 552 ------- 1 0.0 5.0 21 31
+ 0.146976 4 5 tcp 552 ------- 1 0.0 5.0 21 31
- 0.146976 4 5 tcp 552 ------- 1 0.0 5.0 21 31
r 0.14699 5 4 ack 40 ------- 1 5.0 0.0 11 53
+ 0.14699 4 3 ack 40 ------- 1 5.0 0.0 11 53
- 0.14699 4 3 ack 40 ------- 1 5.0 0.0 11 53
r 0.146998 3 4 tcp 552 ------- 1 0.0 5.0 22 32
+ 0.146998 4 5 tcp 552 ------- 1 0.0 5.0 22 32
r 0.147002 0 3 tcp 552 ------- 1 0.0 5.0 34 44
+ 0.147002 3 4 tcp 552 ------- 1 0.0 5.0 34 44
- 0.147002 3 4 tcp 552 ------- 1 0.0 5.0 34 44
r 0.14701 4 5 tcp 552 ------- 1 0.0 5.0 12 22
+ 0.14701 5 4 ack 40 ------- 1 5.0 0.0 12 54
- 0.14701 5 4 ack 40 ------- 1 5.0 0.0 12 54
r 0.147022 0 3 tcp 552 ------- 1 0.0 5.0 35 45
+ 0.147022 3 4 tcp 552 ------- 1 0.0 5.0 35 45
r 0.147027 4 5 tcp 552 ------- 1 0.0 5.0 13 23
+ 0.147027 5 4 ack 40 ------- 1 5.0 0.0 13 55
- 0.147031 5 4 ack 40 ------- 1 5.0 0.0 13 55
- 0.147035 4 5 tcp 552 ------- 1 0.0 5.0 22 32
- 0.147308 3 4 tcp 552 ------- 1 0.0 5.0 35 45
r 0.147857 0 3 tcp 552 ------- 1 0.0 5.0 36 46
+ 0.147857 3 4 tcp 552 ------- 1 0.0 5.0 36 46
- 0.147857 3 4 tcp 552 ------- 1 0.0 5.0 36 46
r 0.147872 4 5 tcp 552 ------- 1 0.0 5.0 14 24
+ 0.147872 5 4 ack 40 ------- 1 5.0 0.0 14 56
- 0.147872 5 4 ack 40 ------- 1 5.0 0.0 14 56
r 0.147881 0 3 tcp 552 ------- 1 0.0 5.0 37 47
+ 0.147881 3 4 tcp 552 ------- 1 0.0 5.0 37 47
- 0.150878 3 4 tcp 552 ------- 1 0.0 5.0 37 47
r 0.153364 4 5 tcp 552 ------- 1 0.0 5.0 15 25
+ 0.153364 5 4 ack 40 ------- 1 5.0 0.0 15 57
- 0.153364 5 4 ack 40 ------- 1 5.0 0.0 15 57
r 0.153396 0 3 tcp 552 ------- 1 0.0 5.0 38 48
+ 0.153396 3 4 tcp 552 ------- 1 0.0 5.0 38 48
r 0.153403 4 5 tcp 552 ------- 1 0.0 5.0 16 26
+ 0.153403 5 4 ack 40 ------- 1 5.0 0.0 16 58
r 0.153408 0 3 tcp 552 ------- 1 0.0 5.0 39 49
+ 0.153408 3 4 tcp 552 ------- 1 0.0 5.0 39 49
r 0.153413 3 4 tcp 552 ------- 1 0.0 5.0 23 33
+ 0.153413 4 5 tcp 552 ------- 1 0.0 5.0 23 33
- 0.153413 4 5 tcp 552 ------- 1 0.0 5.0 23 33
r 0.153423 4 5 tcp 552 ------- 1 0.0 5.0 17 27
+ 0.153423 5 4 ack 40 ------- 1 5.0 0.0 17 59
r 0.153429 0 3 tcp 552 ------- 1 0.0 5.0 40 50
+ 0.153429 3 4 tcp 552 ------- 1 0.0 5.0 40 50
r 0.153433 4 5 tcp 552 ------- 1 0.0 5.0 18 28
+ 0.153433 5 4 ack 40 ------- 1 5.0 0.0 18 60
r 0.153438 0 3 tcp 552 ------- 1 0.0 5.0 41 51
+ 0.153438 3 4 tcp 552 ------- 1 0.0 5.0 41 51
r 0.153442 4 5 tcp 552 ------- 1 0.0 5.0 19 29
+ 0.153442 5 4 ack 40 ------- 1 5.0 0.0 19 61
r 0.153448 4 5 tcp 552 ------- 1 0.0 5.0 20 30
+ 0.153448 5 4 ack 40 ------- 1 5.0 0.0 20 62
- 0.153452 3 4 tcp 552 ------- 1 0.0 5.0 38 48
r 0.153456 3 4 tcp 552 ------- 1 0.0 5.0 24 34
+ 0.153456 4 5 tcp 552 ------- 1 0.0 5.0 24 34
r 0.15346 3 4 tcp 552 ------- 1 0.0 5.0 25 35
+ 0.15346 4 5 tcp 552 ------- 1 0.0 5.0 25 35
r 0.153465 5 4 ack 40 ------- 1 5.0 0.0 12 54
+ 0.153465 4 3 ack 40 ------- 1 5.0 0.0 12 54
- 0.153465 4 3 ack 40 ------- 1 5.0 0.0 12 54
r 0.153475 4 5 tcp 552 ------- 1 0.0 5.0 21 31
+ 0.153475 5 4 ack 40 ------- 1 5.0 0.0 21 63
r 0.15348 5 4 ack 40 ------- 1 5.0 0.0 13 55
+ 0.15348 4 3 ack 40 ------- 1 5.0 0.0 13 55
r 0.153484 4 5 tcp 552 ------- 1 0.0 5.0 22 32
+ 0.153484 5 4 ack 40 ------- 1 5.0 0.0 22 64
r 0.15349 3 4 tcp 552 ------- 1 0.0 5.0 26 36
+ 0.15349 4 5 tcp 552 ------- 1 0.0 5.0 26 36
r 0.153622 3 4 tcp 552 ------- 1 0.0 5.0 27 37
+ 0.153622 4 5 tcp 552 ------- 1 0.0 5.0 27 37
r 0.153627 5 4 ack 40 ------- 1 5.0 0.0 14 56
+ 0.153627 4 3 ack 40 ------- 1 5.0 0.0 14 56
r 0.153631 3 4 tcp 552 ------- 1 0.0 5.0 28 38
+ 0.153631 4 5 tcp 552 ------- 1 0.0 5.0 28 38
- 0.153635 5 4 ack 40 ------- 1 5.0 0.0 16 58
- 0.153639 4 5 tcp 552 ------- 1 0.0 5.0 24 34
r 0.153642 3 4 tcp 552 ------- 1 0.0 5.0 29 39
+ 0.153642 4 5 tcp 552 ------- 1 0.0 5.0 29 39
- 0.153646 4 3 ack 40 ------- 1 5.0 0.0 13 55
- 0.153649 3 4 tcp 552 ------- 1 0.0 5.0 39 49
- 0.153652 5 4 ack 40 ------- 1 5.0 0.0 17 59
- 0.153655 4 3 ack 40 ------- 1 5.0 0.0 14 56
- 0.153658 5 4 ack 40 ------- 1 5.0 0.0 18 60
- 0.153662 5 4 ack 40 ------- 1 5.0 0.0 19 61
- 0.15409 5 4 ack 40 ------- 1 5.0 0.0 20 62
- 0.154102 4 5 tcp 552 ------- 1 0.0 5.0 25 35
- 0.154243 3 4 tcp 552 ------- 1 0.0 5.0 40 50
r 0.154247 3 4 tcp 552 ------- 1 0.0 5.0 30 40
+ 0.154247 4 5 tcp 552 ------- 1 0.0 5.0 30 40
- 0.154253 5 4 ack 40 ------- 1 5.0 0.0 21 63
- 0.154257 4 5 tcp 552 ------- 1 0.0 5.0 26 36
- 0.15426 5 4 ack 40 ------- 1 5.0 0.0 22 64
- 0.154569 3 4 tcp 552 ------- 1 0.0 5.0 41 51
- 0.154582 4 5 tcp 552 ------- 1 0.0 5.0 27 37
r 0.154586 4 3 ack 40 ------- 1 5.0 0.0 10 52
+ 0.154586 3 0 ack 40 ------- 1 5.0 0.0 10 52
- 0.154586 3 0 ack 40 ------- 1 5.0 0.0 10 52
r 0.154748 3 4 tcp 552 ------- 1 0.0 5.0 31 41
+ 0.154748 4 5 tcp 552 ------- 1 0.0 5.0 31 41
- 0.154755 4 5 tcp 552 ------- 1 0.0 5.0 28 38
r 0.154759 3 4 tcp 552 ------- 1 0.0 5.0 32 42
+ 0.154759 4 5 tcp 552 ------- 1 0.0 5.0 32 42
- 0.155127 4 5 tcp 552 ------- 1 0.0 5.0 29 39
r 0.155142 3 4 tcp 552 ------- 1 0.0 5.0 33 43
+ 0.155142 4 5 tcp 552 ------- 1 0.0 5.0 33 43
- 0.155456 4 5 tcp 552 ------- 1 0.0 5.0 30 40
- 0.155766 4 5 tcp 552 ------- 1 0.0 5.0 31 41
- 0.156112 4 5 tcp 552 ------- 1 0.0 5.0 32 42
- 0.156409 4 5 tcp 552 ------- 1 0.0 5.0 33 43
r 0.157009 4 3 ack 40 ------- 1 5.0 0.0 11 53
+ 0.157009 3 0 ack 40 ------- 1 5.0 0.0 11 53
- 0.157009 3 0 ack 40 ------- 1 5.0 0.0 11 53
r 0.157385 3 4 tcp 552 ------- 1 0.0 5.0 34 44
+ 0.157385 4 5 tcp 552 ------- 1 0.0 5.0 34 44
- 0.157385 4 5 tcp 552 ------- 1 0.0 5.0 34 44
r 0.157399 3 4 tcp 552 ------- 1 0.0 5.0 35 45
+ 0.157399 4 5 tcp 552 ------- 1 0.0 5.0 35 45
- 0.157693 4 5 tcp 552 ------- 1 0.0 5.0 35 45
r 0.15799 3 4 tcp 552 ------- 1 0.0 5.0 36 46
+ 0.15799 4 5 tcp 552 ------- 1 0.0 5.0 36 46
- 0.15799 4 5 tcp 552 ------- 1 0.0 5.0 36 46
r 0.158601 5 4 ack 40 ------- 1 5.0 0.0 15 57
+ 0.158601 4 3 ack 40 ------- 1 5.0 0.0 15 57
- 0.158601 4 3 ack 40 ------- 1 5.0 0.0 15 57
r 0.158616 4 5 tcp 552 ------- 1 0.0 5.0 23 33
+ 0.158616 5 4 ack 40 ------- 1 5.0 0.0 23 65
- 0.158616 5 4 ack 40 ------- 1 5.0 0.0 23 65
r 0.158928 5 4 ack 40 ------- 1 5.0 0.0 16 58
+ 0.158928 4 3 ack 40 ------- 1 5.0 0.0 16 58
- 0.158928 4 3 ack 40 ------- 1 5.0 0.0 16 58
r 0.159027 5 4 ack 40 ------- 1 5.0 0.0 17 59
+ 0.159027 4 3 ack 40 ------- 1 5.0 0.0 17 59
r 0.159031 5 4 ack 40 ------- 1 5.0 0.0 18 60
+ 0.159031 4 3 ack 40 ------- 1 5.0 0.0 18 60
r 0.159035 5 4 ack 40 ------- 1 5.0 0.0 19 61
+ 0.159035 4 3 ack 40 ------- 1 5.0 0.0 19 61
r 0.159039 4 5 tcp 552 ------- 1 0.0 5.0 24 34
+ 0.159039 5 4 ack 40 ------- 1 5.0 0.0 24 66
- 0.159039 5 4 ack 40 ------- 1 5.0 0.0 24 66
- 0.159048 4 3 ack 40 ------- 1 5.0 0.0 17 59
- 0.159052 4 3 ack 40 ------- 1 5.0 0.0 18 60
- 0.15935 4 3 ack 40 ------- 1 5.0 0.0 19 61
r 0.159362 5 4 ack 40 ------- 1 5.0 0.0 20 62
+ 0.159362 4 3 ack 40 ------- 1 5.0 0.0 20 62
r 0.159367 4 5 tcp 552 ------- 1 0.0 5.0 25 35
+ 0.159367 5 4 ack 40 ------- 1 5.0 0.0 25 67
- 0.159367 5 4 ack 40 ------- 1 5.0 0.0 25 67
r 0.159377 5 4 ack 40 ------- 1 5.0 0.0 21 63
+ 0.159377 4 3 ack 40 ------- 1 5.0 0.0 21 63
r 0.159381 5 4 ack 40 ------- 1 5.0 0.0 22 64
+ 0.159381 4 3 ack 40 ------- 1 5.0 0.0 22 64
r 0.159385 4 5 tcp 552 ------- 1 0.0 5.0 26 36
+ 0.159385 5 4 ack 40 ------- 1 5.0 0.0 26 68
- 0.15939 4 3 ack 40 ------- 1 5.0 0.0 20 62
- 0.159393 5 4 ack 40 ------- 1 5.0 0.0 26 68
- 0.159396 4 3 ack 40 ------- 1 5.0 0.0 21 63
- 0.159689 4 3 ack 40 ------- 1 5.0 0.0 22 64
r 0.159698 3 0 ack 40 ------- 1 5.0 0.0 10 52
+ 0.159698 0 3 tcp 552 ------- 1 0.0 5.0 42 69
- 0.159698 0 3 tcp 552 ------- 1 0.0 5.0 42 69
r 0.159714 4 5 tcp 552 ------- 1 0.0 5.0 27 37
+ 0.159714 5 4 ack 40 ------- 1 5.0 0.0 27 70
- 0.159714 5 4 ack 40 ------- 1 5.0 0.0 27 70
r 0.160115 4 5 tcp 552 ------- 1 0.0 5.0 28 38
+ 0.160115 5 4 ack 40 ------- 1 5.0 0.0 28 71
- 0.160115 5 4 ack 40 ------- 1 5.0 0.0 28 71
r 0.160417 4 5 tcp 552 ------- 1 0.0 5.0 29 39
+ 0.160417 5 4 ack 40 ------- 1 5.0 0.0 29 72
- 0.160417 5 4 ack 40 ------- 1 5.0 0.0 29 72
r 0.160724 4 5 tcp 552 ------- 1 0.0 5.0 30 40
+ 0.160724 5 4 ack 40 ------- 1 5.0 0.0 30 73
- 0.160724 5 4 ack 40 ------- 1 5.0 0.0 30 73
r 0.161028 4 5 tcp 552 ------- 1 0.0 5.0 31 41
+ 0.161028 5 4 ack 40 ------- 1 5.0 0.0 31 74
- 0.161028 5 4 ack 40 ------- 1 5.0 0.0 31 74
r 0.161212 3 4 tcp 552 ------- 1 0.0 5.0 37 47
+ 0.161212 4 5 tcp 552 ------- 1 0.0 5.0 37 47
- 0.161212 4 5 tcp 552 ------- 1 0.0 5.0 37 47
r 0.161221 4 5 tcp 552 ------- 1 0.0 5.0 32 42
+ 0.161221 5 4 ack 40 ------- 1 5.0 0.0 32 75
- 0.161221 5 4 ack 40 ------- 1 5.0 0.0 32 75
r 0.161529 4 5 tcp 552 ------- 1 0.0 5.0 33 43
+ 0.161529 5 4 ack 40 ------- 1 5.0 0.0 33 76
- 0.161529 5 4 ack 40 ------- 1 5.0 0.0 33 76
r 0.16213 3 0 ack 40 ------- 1 5.0 0.0 11 53
+ 0.16213 0 3 tcp 552 ------- 1 0.0 5.0 43 77
- 0.16213 0 3 tcp 552 ------- 1 0.0 5.0 43 77
r 0.162448 4 5 tcp 552 ------- 1 0.0 5.0 34 44
+ 0.162448 5 4 ack 40 ------- 1 5.0 0.0 34 78
- 0.162448 5 4 ack 40 ------- 1 5.0 0.0 34 78
r 0.162753 4 5 tcp 552 ------- 1 0.0 5.0 35 45
+ 0.162753 5 4 ack 40 ------- 1 5.0 0.0 35 79
- 0.162753 5 4 ack 40 ------- 1 5.0 0.0 35 79
r 0.163054 4 5 tcp 552 ------- 1 0.0 5.0 36 46
+ 0.163054 5 4 ack 40 ------- 1 5.0 0.0 36 80
- 0.163054 5 4 ack 40 ------- 1 5.0 0.0 36 80
r 0.163502 4 3 ack 40 ------- 1 5.0 0.0 12 54
+ 0.163502 3 0 ack 40 ------- 1 5.0 0.0 12 54
- 0.163502 3 0 ack 40 ------- 1 5.0 0.0 12 54
r 0.16352 3 4 tcp 552 ------- 1 0.0 5.0 38 48
+ 0.16352 4 5 tcp 552 ------- 1 0.0 5.0 38 48
- 0.16352 4 5 tcp 552 ------- 1 0.0 5.0 38 48
r 0.163848 5 4 ack 40 ------- 1 5.0 0.0 23 65
+ 0.163848 4 3 ack 40 ------- 1 5.0 0.0 23 65
- 0.163848 4 3 ack 40 ------- 1 5.0 0.0 23 65
r 0.163863 4 3 ack 40 ------- 1 5.0 0.0 13 55
+ 0.163863 3 0 ack 40 ------- 1 5.0 0.0 13 55
- 0.163863 3 0 ack 40 ------- 1 5.0 0.0 13 55
r 0.163871 4 3 ack 40 ------- 1 5.0 0.0 14 56
+ 0.163871 3 0 ack 40 ------- 1 5.0 0.0 14 56
r 0.163875 3 4 tcp 552 ------- 1 0.0 5.0 39 49
+ 0.163875 4 5 tcp 552 ------- 1 0.0 5.0 39 49
- 0.163875 4 5 tcp 552 ------- 1 0.0 5.0 39 49
- 0.163883 3 0 ack 40 ------- 1 5.0 0.0 14 56
r 0.164228 5 4 ack 40 ------- 1 5.0 0.0 24 66
+ 0.164228 4 3 ack 40 ------- 1 5.0 0.0 24 66
- 0.164228 4 3 ack 40 ------- 1 5.0 0.0 24 66
r 0.165237 3 4 tcp 552 ------- 1 0.0 5.0 40 50
+ 0.165237 4 5 tcp 552 ------- 1 0.0 5.0 40 50
- 0.165237 4 5 tcp 552 ------- 1 0.0 5.0 40 50
r 0.165274 5 4 ack 40 ------- 1 5.0 0.0 25 67
+ 0.165274 4 3 ack 40 ------- 1 5.0 0.0 25 67
- 0.165274 4 3 ack 40 ------- 1 5.0 0.0 25 67
r 0.165283 5 4 ack 40 ------- 1 5.0 0.0 26 68
+ 0.165283 4 3 ack 40 ------- 1 5.0 0.0 26 68
r 0.165287 3 4 tcp 552 ------- 1 0.0 5.0 41 51
+ 0.165287 4 5 tcp 552 ------- 1 0.0 5.0 41 51
r 0.165291 5 4 ack 40 ------- 1 5.0 0.0 27 70
+ 0.165291 4 3 ack 40 ------- 1 5.0 0.0 27 70
r 0.165295 0 3 tcp 552 ------- 1 0.0 5.0 42 69
+ 0.165295 3 4 tcp 552 ------- 1 0.0 5.0 42 69
- 0.165295 3 4 tcp 552 ------- 1 0.0 5.0 42 69
r 0.165348 5 4 ack 40 ------- 1 5.0 0.0 28 71
+ 0.165348 4 3 ack 40 ------- 1 5.0 0.0 28 71
- 0.165352 4 3 ack 40 ------- 1 5.0 0.0 26 68
- 0.165356 4 5 tcp 552 ------- 1 0.0 5.0 41 51
- 0.165359 4 3 ack 40 ------- 1 5.0 0.0 27 70
- 0.165678 4 3 ack 40 ------- 1 5.0 0.0 28 71
r 0.165695 5 4 ack 40 ------- 1 5.0 0.0 29 72
+ 0.165695 4 3 ack 40 ------- 1 5.0 0.0 29 72
- 0.165701 4 3 ack 40 ------- 1 5.0 0.0 29 72
r 0.166003 5 4 ack 40 ------- 1 5.0 0.0 30 73
+ 0.166003 4 3 ack 40 ------- 1 5.0 0.0 30 73
- 0.166003 4 3 ack 40 ------- 1 5.0 0.0 30 73
r 0.166311 5 4 ack 40 ------- 1 5.0 0.0 31 74
+ 0.166311 4 3 ack 40 ------- 1 5.0 0.0 31 74
- 0.166311 4 3 ack 40 ------- 1 5.0 0.0 31 74
r 0.166328 5 4 ack 40 ------- 1 5.0 0.0 32 75
+ 0.166328 4 3 ack 40 ------- 1 5.0 0.0 32 75
r 0.166332 4 5 tcp 552 ------- 1 0.0 5.0 37 47
+ 0.166332 5 4 ack 40 ------- 1 5.0 0.0 37 81
- 0.166332 5 4 ack 40 ------- 1 5.0 0.0 37 81
- 0.166345 4 3 ack 40 ------- 1 5.0 0.0 32 75
r 0.166647 5 4 ack 40 ------- 1 5.0 0.0 33 76
+ 0.166647 4 3 ack 40 ------- 1 5.0 0.0 33 76
- 0.166647 4 3 ack 40 ------- 1 5.0 0.0 33 76
r 0.167254 0 3 tcp 552 ------- 1 0.0 5.0 43 77
+ 0.167254 3 4 tcp 552 ------- 1 0.0 5.0 43 77
- 0.167254 3 4 tcp 552 ------- 1 0.0 5.0 43 77
r 0.16763 5 4 ack 40 ------- 1 5.0 0.0 34 78
+ 0.16763 4 3 ack 40 ------- 1 5.0 0.0 34 78
- 0.16763 4 3 ack 40 ------- 1 5.0 0.0 34 78
r 0.167951 5 4 ack 40 ------- 1 5.0 0.0 35 79
+ 0.167951 4 3 ack 40 ------- 1 5.0 0.0 35 79
- 0.167951 4 3 ack 40 ------- 1 5.0 0.0 35 79
r 0.168623 5 4 ack 40 ------- 1 5.0 0.0 36 80
+ 0.168623 4 3 ack 40 ------- 1 5.0 0.0 36 80
- 0.168623 4 3 ack 40 ------- 1 5.0 0.0 36 80
r 0.168636 3 0 ack 40 ------- 1 5.0 0.0 12 54
+ 0.168636 0 3 tcp 552 ------- 1 0.0 5.0 44 82
- 0.168636 0 3 tcp 552 ------- 1 0.0 5.0 44 82
r 0.168655 4 5 tcp 552 ------- 1 0.0 5.0 38 48
+ 0.168655 5 4 ack 40 ------- 1 5.0 0.0 38 83
- 0.168655 5 4 ack 40 ------- 1 5.0 0.0 38 83
r 0.168666 4 3 ack 40 ------- 1 5.0 0.0 15 57
+ 0.168666 3 0 ack 40 ------- 1 5.0 0.0 15 57
- 0.168666 3 0 ack 40 ------- 1 5.0 0.0 15 57
r 0.16979 3 0 ack 40 ------- 1 5.0 0.0 13 55
+ 0.16979 0 3 tcp 552 ------- 1 0.0 5.0 45 84
- 0.16979 0 3 tcp 552 ------- 1 0.0 5.0 45 84
r 0.169836 3 0 ack 40 ------- 1 5.0 0.0 14 56
+ 0.169836 0 3 tcp 552 ------- 1 0.0 5.0 46 85
r 0.169841 4 5 tcp 552 ------- 1 0.0 5.0 39 49
+ 0.169841 5 4 ack 40 ------- 1 5.0 0.0 39 86
- 0.169841 5 4 ack 40 ------- 1 5.0 0.0 39 86
r 0.169855 4 3 ack 40 ------- 1 5.0 0.0 16 58
+ 0.169855 3 0 ack 40 ------- 1 5.0 0.0 16 58
- 0.169855 3 0 ack 40 ------- 1 5.0 0.0 16 58
r 0.169865 4 3 ack 40 ------- 1 5.0 0.0 17 59
+ 0.169865 3 0 ack 40 ------- 1 5.0 0.0 17 59
r 0.169869 4 3 ack 40 ------- 1 5.0 0.0 18 60